         634
 Energy =   -948.35628203 a.u.  #Cluster:    1
C          -6.61564398      0.11814789      3.24978548
C          -5.26446930     -0.35748642      3.13298167
C          -4.73379457     -0.60529078      1.84406909
C          -5.40930039     -0.11496128      0.69790465
C          -6.65404041      0.58408010      0.85112381
C          -7.29437926      0.57156890      2.14946701
C          -7.21473443      1.17281537     -0.28760537
C          -6.68219173      0.95221931     -1.59164986
C          -5.49817195      0.16804927     -1.73382208
C          -4.83710891     -0.31723985     -0.57941559
C          -4.98485024     -0.07049239     -3.02816754
C          -5.61454287      0.47285208     -4.17229378
C          -6.75076737      1.32324908     -4.02023723
C          -7.27392069      1.50480366     -2.73331905
C          -7.29374604      1.97805576     -5.17080085
C          -6.61559019      1.91146062     -6.37177205
C          -5.44910838      1.11223084     -6.50491080
C          -5.06059416      0.25888707     -5.46674607
C          -3.75971115     -0.79798500     -3.16769188
C          -3.31559862     -1.17286220     -4.46300106
C          -4.05868041     -0.78637455     -5.60749151
C          -3.56434275     -0.95865832     -0.71066208
C          -3.04164479     -1.18200173     -2.02026687
C          -2.85286103     -1.37330136      0.43480370
C          -3.50136954     -1.32436563      1.70880586
C          -3.03141922     -2.02926311      2.82868400
C          -3.50544938     -1.74970479      4.10625559
C          -4.46527097     -0.70987275      4.25544058
C          -4.42264941     -0.01583454      5.49940128
C          -3.75454058     -0.53820341      6.58339256
C          -3.24083823     -1.87349045      6.59186967
C          -3.07019755     -2.45199755      5.30109589
C          -2.57136603     -3.75202003      5.21158658
C          -2.27610289     -4.50252080      6.33561257
C          -2.43204250     -3.93814097      7.61387601
C          -2.91634089     -2.63510753      7.74445947
C          -1.78224194     -1.84078623     -2.18676039
C          -0.99146841     -2.01088383     -1.01682783
C          -1.47849006     -1.76794417      0.26375551
C          -2.14940480     -1.99798169     -4.58793424
C          -1.37258175     -2.25175541     -3.44190020
C          -3.81874452     -1.50448667     -6.79181014
C          -2.68571274     -2.36832691     -6.87495660
C          -1.80359179     -2.55151869     -5.83384295
C          -7.34314865     -0.12674700      4.56015033
C          -8.56694044      0.76503933      4.73352887
C          -9.46598144      0.57157768      3.51955767
C          -8.73938516      1.01436805      2.25011120
C          -7.11845960      2.67015788     -7.58277525
C          -8.61279233      2.97104703     -7.50181279
C          -8.90359965      3.68352432     -6.18788572
C          -8.57447237      2.76823147     -5.00898683
C          -2.05331584     -4.74497836      8.83749364
C          -1.98564854     -6.25261130      8.59190598
C          -1.17505449     -6.54665631      7.33489077
C          -1.88899031     -5.94621811      6.12938190
N          -2.68601241     -2.93637110     -8.12324311
C          -3.80412128     -2.52779497     -8.80453080
C          -4.51212484     -1.64961198     -8.03727046
C          -0.42448035     -1.85157744      1.22868564
C           0.77384579     -2.15467586      0.67127737
S           0.69377452     -2.39227336     -1.03573744
S          -3.57805624      0.69625265      7.87753756
C          -4.41944835      1.89880826      6.85070053
C          -4.82220923      1.37617901      5.69273399
H          -2.04152364     -3.63964254     -8.43939382
O          -2.10616971      1.07383523      7.87490124
C          -3.19263594     -2.07302379      9.12086050
C          -1.93960736     -1.50737682      9.80420722
C          -2.23920723     -0.91565962     11.19370660
C          -3.20219037      0.25422599     11.14797037
C          -2.67837501      1.58995129     11.63913187
C          -1.56760561      2.16671665     10.74735164
C          -2.06462299      3.24626436      9.79733030
C          -0.94389611      4.02884231      9.14492792
C          -1.42433073      4.97466561      8.04054641
C          -1.67413494      4.22421357      6.72973478
C          -2.32911906      5.10474325      5.65967860
C          -1.35381740      6.11158590      5.04033233
C          -2.00554535      6.90168738      3.90573913
C          -4.51912727      1.35943597     -7.66421386
C          -3.69973422      2.63656415     -7.37362632
C          -2.02481820      4.05500969    -10.29530066
C          -2.62097447      4.91111174    -11.41498913
C          -1.56983108      5.80833773    -12.08126769
C          -2.20484838      6.97879474    -12.84552660
C          -2.76278633      8.03241009    -11.88357258
C          -3.29875218      9.26998517    -12.60852351
C          -4.00277599     10.23364702    -11.63348628
C          -4.10638079      6.73357805     -3.71899189
C          -3.45884133      7.62719863     -4.57126348
C          -2.07187351      7.66082799     -4.66486550
C          -1.32296782      6.89133548     -3.73570677
C          -1.96218192      5.95692656     -2.86456353
C          -3.37788915      5.84020444     -2.93476559
C          -1.09230474      5.22718172     -1.96851747
C           0.26759661      5.28345279     -2.12464838
C           0.91351316      6.19837364     -2.99312132
C           0.08489701      7.09029881     -3.69783198
C          -1.39488502      8.55861623     -5.58853604
C          -0.13647666      9.04205798     -5.17605685
C           0.65231599      8.23729263     -4.29634151
C           2.02768204      8.50214273     -4.15221370
C           2.87011832      7.43903496     -3.72434146
C           2.32098658      6.30565261     -3.14649498
C           0.43029663     10.22827118     -5.72658202
C           1.61826373     10.78305596     -5.08299016
C           2.46052578      9.87427783     -4.39172718
C          -0.18946511     10.77689521     -6.83033563
C          -1.31229471     10.16247543     -7.40623474
C          -1.92625998      9.00248045     -6.84143427
C          -2.86667783      8.29549870     -7.67403798
N          -3.31176864      8.73229193     -8.83303901
C          -2.85706687      9.92126407     -9.28953570
C          -1.86403637     10.62152843     -8.61501470
C           3.60785377     10.38107677     -3.77834924
C           3.95834211     11.71946794     -3.84693605
C           3.08949244     12.63209227     -4.45377877
C           1.90557301     12.16579175     -5.04436123
C           3.43453820     14.10702003     -4.44215605
C           4.44718373     14.47822741     -3.35876026
C           5.66325434     13.56248257     -3.46110283
C           5.23877398     12.12862945     -3.15360838
C           3.15582557      5.13178264     -2.68563319
C           4.65309845      5.23486634     -2.98930878
C           4.89107814      6.06342572     -4.24723389
C           4.35898086      7.47429167     -3.99253874
C          -5.61951521      6.77978329     -3.74907637
C          -6.29384500      5.80073318     -2.79299910
C          -5.51612607      4.49075107     -2.81203832
C          -4.12666333      4.73329593     -2.22591200
O          -1.49134787     11.70912224     -9.33326807
C          -2.24590519     11.70153220    -10.46974699
C          -3.09609621     10.63825614    -10.51141197
C          -3.25018228      6.84855108     -7.43754022
C          -4.72649836      6.58307438     -7.64842020
C          -7.34670971      7.72341779     -8.69924023
C          -6.87607253      9.11746904     -9.10702754
C           0.86742635     13.19212458     -5.45844324
C           1.18697356     13.94525982     -6.75151079
S           0.13928690     15.45028022     -6.79168959
C           1.02468116     16.34041349     -8.12521293
C           0.49194654     17.76795246     -8.18738486
C           1.20948202     18.57657586     -9.27421808
C           0.68549957     20.01448764     -9.32987718
C          -1.52558933      4.44575186     -0.74090628
C          -1.42612858      2.93377953     -0.94263372
S          -0.81843795      2.05930661      0.54877957
C          -2.28710754      2.26903730      1.63497423
C          -1.82769952      2.25232391      3.08741766
C          -1.10880405      0.94888528      3.42618082
C          -0.65793876      0.88270575      4.88099307
C          -0.02073200     -0.45571828      5.19088058
C          -0.07771775     -0.84141833      6.64048451
C           0.69350527     -2.11445269      6.94248856
O           0.21869018      2.97851671      1.13304186
C           1.39763747     20.82356788    -10.42256113
O           0.50846377     16.18662594     -5.53410397
O          -8.29041390      1.99039417     -0.14982878
O           0.87479393     22.13584187    -10.51168843
O          -3.23431086      3.47986642      9.61974588
O           0.48058038     -1.15642313      4.33761313
O          -4.34913110      0.12600468     10.78760226
O          -5.14703623      5.60333893     -8.22329495
O          -5.50043788      7.50927134     -7.09706916
C          -6.92449752      7.38608705     -7.26966728
O          -2.67539720      2.82498140     -8.32882025
C          -3.12712632      3.23829739     -9.61500765
H          -8.16540792      2.11000217     -2.61524027
H          -2.25755989     -2.77279925      2.69529075
H          -2.47274090     -4.21667239      4.23737848
H          -0.45730173     -2.82394776     -3.54212442
H          -0.91340952     -3.15201773     -5.93783217
H          -7.66595144     -1.17686806      4.56132657
H          -6.68161391     -0.00568863      5.41734076
H          -8.26329931      1.81379311      4.81711992
H          -9.09638268      0.48827858      5.64984989
H         -10.38525432      1.15507355      3.62373945
H          -9.74722586     -0.48414488      3.44122953
H          -8.76498370      2.10851244      2.19304744
H          -9.29701399      0.63361228      1.39090288
H          -6.57025197      3.61513216     -7.67427995
H          -6.92661696      2.09245756     -8.49134029
H          -9.18721356      2.04045602     -7.55745305
H          -8.90357462      3.60133738     -8.34715601
H          -9.95562175      3.97688748     -6.13253480
H          -8.29876392      4.59501921     -6.12812364
H          -9.39770943      2.05795935     -4.86201546
H          -8.51989881      3.38563365     -4.10722272
H          -1.06977958     -4.39973657      9.17517066
H          -2.75427637     -4.56207883      9.65637083
H          -2.99724223     -6.65675702      8.47815059
H          -1.53064941     -6.73555899      9.46186632
H          -1.06804823     -7.62615213      7.19793864
H          -0.17360684     -6.11505930      7.42403959
H          -2.80467385     -6.51689410      5.92985823
H          -1.25823665     -6.03161043      5.24171032
H          -4.00731452     -2.90240865     -9.79595049
H          -5.44590652     -1.18650261     -8.31009826
H          -0.53748935     -1.63949993      2.27963227
H           1.72585609     -2.23187698      1.17046328
H          -4.59945629      2.88473529      7.24525868
H          -5.35697141      1.92437000      4.92828887
H          -3.62306016     -2.84841314      9.76142311
H          -3.94491018     -1.28944100      9.04437540
H          -1.49258740     -0.73585124      9.17649896
H          -1.19715204     -2.29906585      9.93290131
H          -1.30080387     -0.62186920     11.66712485
H          -2.70861966     -1.68551946     11.81351709
H          -2.29032622      1.44173806     12.64877662
H          -3.51669874      2.29089335     11.68497932
H          -1.11711894      1.39096781     10.12307005
H          -0.76717738      2.58696840     11.35897320
H          -0.19718040      3.32577375      8.76625961
H          -0.46456723      4.60226497      9.94428327
H          -0.66992888      5.75131596      7.88828135
H          -2.34807479      5.46306564      8.36832311
H          -2.32635883      3.37087819      6.93300085
H          -0.72662906      3.82632073      6.34985334
H          -3.18165456      5.63858963      6.09328350
H          -2.72012286      4.45902447      4.86596030
H          -0.48088331      5.57610644      4.65101457
H          -0.99978970      6.80791097      5.80722157
H          -1.29145866      7.61042136      3.48460705
H          -2.86964501      7.45762773      4.27267609
H          -2.33798445      6.23186886      3.11062101
H          -5.04891795      1.47541656     -8.61035469
H          -3.80031446      0.55302906     -7.78221772
H          -3.20369508      2.53148306     -6.40056578
H          -4.35877513      3.51461536     -7.33582924
H          -1.56147079      4.70291795     -9.54369966
H          -1.24904321      3.39110873    -10.68782032
H          -3.41630183      5.52936584    -10.98631762
H          -3.08225656      4.26570008    -12.17001775
H          -0.96815030      5.20846592    -12.77173139
H          -0.89124720      6.20929820    -11.31937830
H          -3.00042394      6.60847213    -13.50060804
H          -1.44109579      7.44077575    -13.48025040
H          -1.96723236      8.33691151    -11.19611081
H          -3.56660631      7.60190432    -11.27774298
H          -4.01806257      8.96980559    -13.37704606
H          -2.47552382      9.79356926    -13.10547742
H          -4.88838473      9.73926544    -11.22412684
H          -4.33172598     11.11853296    -12.18629363
H          -4.05476296      8.29575858     -5.18326031
H           0.88161472      4.68533446     -1.45976087
H           0.22754806     11.62050504     -7.35984098
H           4.22876530      9.73601736     -3.17310899
H           3.86081766     14.37071165     -5.41768007
H           2.53747016     14.71800398     -4.30889251
H           3.99093589     14.37998518     -2.36782076
H           4.74690240     15.52188267     -3.49175101
H           6.43735175     13.87389685     -2.75391777
H           6.08459328     13.62199022     -4.47023742
H           5.09285516     12.01929129     -2.07164804
H           6.03682239     11.43531196     -3.43884316
H           3.02111422      4.99444943     -1.60775552
H           2.75449181      4.23307066     -3.16967571
H           5.06586771      4.22915466     -3.11104362
H           5.17370564      5.70681144     -2.14943621
H           4.38009019      5.61260457     -5.10428485
H           5.96057845      6.10966414     -4.46967006
H           4.56527215      8.11589163     -4.85375569
H           4.89956562      7.88324454     -3.13209507
H          -5.94522863      7.80214429     -3.52939503
H          -5.94332361      6.55579514     -4.77062857
H          -7.32961408      5.63965923     -3.10303020
H          -6.30674656      6.20534297     -1.77552206
H          -5.43728629      4.11672320     -3.83794262
H          -6.02987892      3.73334923     -2.21435504
H          -3.55161746      3.80648391     -2.29337100
H          -4.25420477      4.98055397     -1.16599954
H          -2.07489749     12.51471592    -11.15720957
H          -2.99803074      6.50467791     -6.43810760
H          -2.70708303      6.22624434     -8.15278123
H          -6.93306894      6.97642098     -9.38247817
H          -8.43740935      7.66072957     -8.74782902
H          -5.78782115      9.17228197     -9.04920591
H          -7.29877797      9.87624801     -8.44671040
H          -7.18631366      9.33296256    -10.12933454
H           0.79455668     13.93354298     -4.65554645
H          -0.11865838     12.72999004     -5.54118781
H           0.93972571     13.37494861     -7.64554335
H           2.23431107     14.23707928     -6.80042814
H           0.82600122     15.79616051     -9.04870222
H           2.09592522     16.32998132     -7.92006708
H           0.64050181     18.24405763     -7.21272273
H          -0.58317503     17.74830984     -8.39303531
H           1.05996652     18.09337735    -10.24576953
H           2.28549129     18.58616408     -9.07014891
H           0.84199681     20.50507120     -8.36372991
H          -0.38992375     20.01465182     -9.53418289
H          -2.51582818      4.72877843     -0.39182479
H          -0.82600278      4.71243118      0.05961718
H          -0.68274149      2.69891481     -1.70289266
H          -2.37257833      2.47287518     -1.21943097
H          -2.93993469      1.42515131      1.41069814
H          -2.80689091      3.19873847      1.40644525
H          -2.70167254      2.37887284      3.73408693
H          -1.15648420      3.09937942      3.25251920
H          -0.23608311      0.83663467      2.77907701
H          -1.77633495      0.10840348      3.22827404
H          -1.48738278      1.05504908      5.56691019
H           0.10012053      1.64374672      5.08608107
H          -1.13263413     -0.97632736      6.87394520
H           0.26709174     -0.00115102      7.24221725
H           1.73307165     -2.01313246      6.63416711
H           0.25442571     -2.94922643      6.39843057
H           0.66431205     -2.33476861      8.00692980
H           1.23881864     20.35433713    -11.40141014
H           2.48153685     20.85082442    -10.22343262
H          -8.58956437      2.35095739     -0.99616996
H           1.00955276     22.59294466     -9.67168581
H          -7.36481007      8.08718901     -6.55488202
H          -7.22853864      6.36396581     -7.01383818
H          -4.02509600      3.86282690     -9.50384534
H          -3.38994062      2.36465981    -10.23160910
C           7.69506249     -4.68239893      7.23666563
C           6.60362677     -4.10943763      7.97054879
C           5.95591627     -2.96569475      7.44704106
C           6.14015856     -2.61264437      6.08682340
C           7.04111850     -3.38313242      5.27485936
C           7.90817494     -4.34233936      5.92672904
C           7.09085342     -3.09170539      3.90818636
C           6.40658514     -1.97274750      3.35078374
C           5.57411692     -1.17062302      4.18932726
C           5.41782146     -1.51777834      5.55346234
C           4.89356874     -0.06449601      3.62887439
C           5.03141862      0.24680877      2.25548144
C           5.86734778     -0.55727150      1.42181244
C           6.53940660     -1.63755457      1.99947548
C           5.99299591     -0.23048527      0.03425798
C           5.12103977      0.68084202     -0.52164464
C           4.17124694      1.36368993      0.28494453
C           4.28097817      1.31061645      1.67993402
C           4.02838260      0.71953896      4.46006356
C           3.44269440      1.90375746      3.93412181
C           3.65846560      2.26417619      2.57884799
C           4.50874423     -0.77445614      6.37428914
C           3.83760758      0.35354631      5.80771274
C           4.30258203     -1.14543181      7.72068846
C           5.10209607     -2.18584041      8.28920442
C           5.13836341     -2.45018282      9.66696015
C           5.58972393     -3.67284781     10.15337326
C           6.16746335     -4.59348881      9.23763806
C           6.06345024     -5.97031352      9.58339973
C           5.61288643     -6.36397547     10.82664944
C           5.43843350     -5.44870589     11.91237485
C           5.41173286     -4.07252424     11.53855025
C           5.18282081     -3.11453380     12.52772235
C           5.01488836     -3.45449561     13.85676631
C           5.09218564     -4.80211423     14.24539864
C           5.29035732     -5.79504422     13.28244990
C           2.98911787      1.16509191      6.62743316
C           2.70564965      0.68932547      7.93806722
C           3.26353233     -0.47319583      8.45884862
C           2.70132465      2.76529039      4.81154139
C           2.45473680      2.34212760      6.13156218
C           3.37438838      3.59188845      2.21605650
C           2.66212403      4.43714005      3.11864515
C           2.26657257      4.03168787      4.37346278
C           8.72677445     -5.48086889      8.01163590
C           9.52321160     -6.42344699      7.11673162
C          10.15124488     -5.59415880      6.00331204
C           9.06962594     -4.92822784      5.15164605
C           5.19173983      1.00974018     -1.99747676
C           6.58601419      0.76423789     -2.56747768
C           6.97657633     -0.67985200     -2.28261239
C           7.06794040     -0.92142332     -0.77591063
C           4.95075619     -5.16158528     15.71035913
C           5.14000993     -3.97437175     16.65475091
C           4.27948519     -2.80371275     16.19129669
C           4.79077634     -2.32555347     14.83557826
N           2.53683599      5.66722984      2.52333050
C           3.20853586      5.65983594      1.32804267
C           3.72476299      4.41752425      1.10139234
C           2.62999833     -0.82795843      9.69539242
C           1.71232974      0.08221536     10.09868268
S           1.53252661      1.39838214      8.99915257
S           5.15049418     -8.10478337     10.81020668
C           5.61703783     -8.21860201      9.08553702
C           6.10264134     -7.06978499      8.61994971
H           2.13041726      6.48314241      2.94706240
O           3.63319986     -8.10608795     10.84487766
C           5.38750046     -7.23865923     13.72600635
C           4.00282644     -7.85215437     13.98664279
C           4.07130160     -9.32884161     14.41715749
C           4.53153237    -10.24747783     13.30307270
C           3.52944570    -11.28189928     12.82755526
C           2.31467420    -10.65176053     12.12603559
C           2.38096991    -10.75956256     10.60871479
C           1.31412887     -9.95787936      9.89450192
C           1.18418816    -10.30520698      8.40736829
C           2.33457242     -9.72826913      7.57612463
C           2.20725827    -10.04521472      6.08092343
C           1.09643962     -9.24533541      5.39135891
C           1.02079159     -9.56133549      3.89834835
C           2.94980532      1.94269669     -0.37707472
C           2.04270653      0.76395137     -0.80356389
C           0.39935135      1.13318956     -4.08360031
C           0.87216328      1.05529320     -5.53464033
C          -0.31053997      0.97335762     -6.50378888
C           0.12144921      0.73064242     -7.95395910
C           0.71952637     -0.66632079     -8.13506955
C           1.05574213     -0.98192196     -9.59481450
C           1.85766463     -2.29269268     -9.71067540
C           3.79649854     -5.55172993     -1.96003517
C           2.88840610     -5.54870456     -3.01620569
C           1.51763874     -5.57749227     -2.79107565
C           1.06070191     -5.75413308     -1.45765891
C           1.96707360     -5.68140106     -0.35155318
C           3.35481914     -5.53091425     -0.63704537
C           1.36996303     -5.78995018      0.96322401
C           0.00821997     -5.84816937      1.10297512
C          -0.89511734     -5.94289763      0.01602630
C          -0.33038822     -5.99277078     -1.27143250
C           0.57897061     -5.57330439     -3.90078170
C          -0.63922569     -6.25209720     -3.69950563
C          -1.14675531     -6.35821320     -2.36716054
C          -2.50612188     -6.66940942     -2.16819883
C          -3.10271370     -6.29141091     -0.93460170
C          -2.30668169     -5.96854689      0.15223276
C          -1.43834046     -6.69941038     -4.79167399
C          -2.58678021     -7.55240600     -4.50214678
C          -3.17806676     -7.42397862     -3.21909526
C          -1.07449519     -6.28946339     -6.05918108
C           0.00147514     -5.41032399     -6.25035281
C           0.82854082     -4.96950408     -5.17350006
C           1.66550115     -3.82380274     -5.42325609
N           1.85396592     -3.28208707     -6.60799603
C           1.20505731     -3.81678096     -7.66765325
C           0.27362475     -4.83449612     -7.50404612
C          -4.31164797     -8.19236001     -2.94167455
C          -4.88645963     -9.03495256     -3.87846554
C          -4.25095443     -9.23680458     -5.10795037
C          -3.08115984     -8.52426631     -5.40154531
C          -4.82563525    -10.22243978     -6.10334806
C          -5.85207086    -11.18090248     -5.49767790
C          -6.86409755    -10.40284611     -4.66229703
C          -6.14329609     -9.77096558     -3.47457368
C          -2.89052509     -5.63561763      1.50713167
C          -4.38092459     -5.25929490      1.51379884
C          -4.87579913     -4.90636149      0.11542935
C          -4.59640459     -6.09383217     -0.80876657
C           5.25704943     -5.54138671     -2.35700621
C           6.21279361     -5.74417578     -1.18747253
C           5.74503529     -4.85941965     -0.03998617
C           4.38339442     -5.34274466      0.45707745
O          -0.36625525     -5.07757467     -8.67930740
C           0.18002762     -4.22340955     -9.60036485
C           1.13450119     -3.42514311     -9.04972567
C           2.18961564     -2.95106944     -4.30376382
C           3.63418540     -2.52895517     -4.46530299
C           5.91608127     -2.23513487     -6.44384036
C           5.24047878     -2.79979590     -7.69106768
C          -2.27796715     -8.92494074     -6.62403035
C          -2.85601811     -8.41882849     -7.95176706
S          -1.46597924     -8.21814604     -9.12959970
C          -2.45453238     -7.89302082    -10.63807395
C          -1.54754131     -8.04083853    -11.85473610
C          -2.32814645     -7.80422865    -13.15264417
C          -1.42487189     -7.96361057    -14.37897212
C           2.08513488     -5.84305936      2.30269908
C           2.07091027     -4.47005549      2.97818113
S           1.81946948     -4.56008065      4.79141509
C           3.51412196     -5.01739750      5.32551011
C           3.42597954     -5.74999049      6.65819644
C           2.71990862     -4.92108432      7.73049487
C           2.56548814     -5.69470353      9.03642668
C           1.77418878     -4.92454877     10.06825286
C           1.79585800     -5.52916325     11.45354323
C           0.97247522     -4.72046072     12.45026781
O           1.01104900     -5.80990933      5.00271623
C          -2.20907561     -7.73627466    -15.67887223
O          -0.92591667     -9.60632837     -9.31515005
O           7.80347615     -3.90308999      3.08498100
O          -1.36445528     -7.83060609    -16.81046848
O           3.18473481    -11.45579161     10.04017984
O           1.17127918     -3.90673293      9.81020193
O           5.64995540    -10.19188674     12.84787542
O           4.03271409     -1.43668665     -4.12784378
O           4.39900714     -3.48553244     -4.97502959
C           5.77892666     -3.18503847     -5.25445227
O           1.10059181      1.11390941     -1.79883822
C           1.59338596      1.12911248     -3.13045451
H           7.18059430     -2.24584756      1.37221249
H           4.74924640     -1.71267391     10.35224375
H           5.16588772     -2.06350278     12.26336191
H           1.86183573      2.97532910      6.78389733
H           1.70336152      4.67889812      5.03511448
H           9.41740814     -4.75957933      8.46914074
H           8.27330901     -6.03674180      8.83270858
H           8.86691286     -7.19159073      6.69447273
H          10.29944122     -6.92226655      7.70400113
H          10.76978207     -6.22463741      5.35799160
H          10.80066483     -4.83072643      6.44507607
H           8.66841413     -5.66819990      4.44970941
H           9.54408876     -4.14427329      4.55598269
H           4.47280707      0.39489335     -2.54911567
H           4.92025819      2.05644146     -2.15884604
H           7.30743652      1.44923866     -2.10993072
H           6.57788947      0.94870281     -3.64556139
H           7.93851829     -0.91935502     -2.74412833
H           6.21946786     -1.34208276     -2.71513185
H           8.04289752     -0.57558719     -0.41042525
H           7.03001611     -2.00157049     -0.60395078
H           3.95069082     -5.57879145     15.87600725
H           5.67173694     -5.93809849     15.98239494
H           6.19296533     -3.67380446     16.67349530
H           4.85769507     -4.27778913     17.66685451
H           4.33035404     -1.98314552     16.91222125
H           3.23429533     -3.12025394     16.11036217
H           5.74180152     -1.79689468     14.97558804
H           4.08718689     -1.60800792     14.40089007
H           3.26841720      6.55615949      0.72990974
H           4.33334230      4.13396598      0.25975997
H           2.78956670     -1.75232711     10.22717615
H           1.11629451      0.04653194     10.99545257
H           5.53331988     -9.16467909      8.57713915
H           6.45749774     -6.92937819      7.60800254
H           5.98167902     -7.30740134     14.64196712
H           5.91256382     -7.82925995     12.97544153
H           3.38431256     -7.76003185     13.09200256
H           3.50183087     -7.30226636     14.78640843
H           3.09105175     -9.63627347     14.78561934
H           4.79142260     -9.42801817     15.23474515
H           3.19386031    -11.84300685     13.70204688
H           4.03322141    -11.97050929     12.14264927
H           2.19266422     -9.60175868     12.39607889
H           1.39992981    -11.16752453     12.43050761
H           1.57392844     -8.90213027     10.01759843
H           0.36152034    -10.11362401     10.40725766
H           0.23029852     -9.91022703      8.04631878
H           1.15934677    -11.39393206      8.29317756
H           3.27812884    -10.14356566      7.94227839
H           2.37446528     -8.64242507      7.71606643
H           2.02435854    -11.11755426      5.94973851
H           3.16236276     -9.81417767      5.59604671
H           1.28423758     -8.17474609      5.52181017
H           0.13039879     -9.47277679      5.85356355
H           0.22970235     -8.97315505      3.43124174
H           0.80548615    -10.61918534      3.73814807
H           1.96584126     -9.32354879      3.40702920
H           3.19572318      2.53376409     -1.25861879